{
  "What is the capital of France?": "Paris",
  "What is the chemical symbol for water?": "H2O",
  "Who wrote the novel 'To Kill a Mockingbird'?": "Harper Lee",
  "Which planet is the largest in our solar system?": "Jupiter",
  "In which year did the Titanic sink?": "1912",
  "What is the square root of 144?": "12",
  "Which animal is the fastest on land?": "Cheetah",
  "Who painted the Mona Lisa?": "Leonardo da Vinci",
  "What is the element with atomic number 1?": "Hydrogen",
  "When did humans first land on the moon?": "1969",
  "What is the largest mammal on Earth?": "Blue Whale",
  "Which is the smallest country in the world?": "Vatican City",
  "What is the hardest natural substance on Earth?": "Diamond",
  "How many continents are there on Earth?": "7",
  "Which planet is known as the Red Planet?": "Mars",
  "Who developed the theory of relativity?": "Albert Einstein",
  "What is the capital of Japan?": "Tokyo",
  "Which is the longest river in the world?": "Nile",
  "What is the main ingredient in guacamole?": "Avocado",
  "Which instrument has 88 keys?": "Piano",
  "What is the national animal of Canada?": "Beaver",
  "What is the boiling point of water at sea level in Celsius?": "100",
  "Which country is famous for originating pizza?": "Italy",
  "How many chambers does the human heart have?": "4",
  "What is the capital of Australia?": "Canberra",
  "Which organ is responsible for pumping blood?": "Heart",
  "What is the tallest mountain in the world?": "Mount Everest",
  "What do plants use for photosynthesis?": "Carbon Dioxide",
  "What is the primary language spoken in Brazil?": "Portuguese",
  "Which chess piece only moves diagonally?": "Bishop",
  "What is the main gas in Earth's atmosphere?": "Nitrogen",
  "Which country is home to kangaroos?": "Australia",
  "What is the currency of the United Kingdom?": "Pound Sterling",
  "How many sides does a hexagon have?": "6",
  "What color is an emerald?": "Green",
  "Who is known as the Father of Computers?": "Charles Babbage",
  "What is the chemical symbol for gold?": "Au",
  "Which Greek god is associated with the sea?": "Poseidon",
  "What is the official language of China?": "Mandarin",
  "Which planet is closest to the Sun?": "Mercury",
  "What is the freezing point of water in Fahrenheit?": "32",
  "Which land animal is the heaviest?": "Elephant",
  "Which planet has the most moons?": "Saturn",
  "Who painted 'The Starry Night'?": "Vincent van Gogh",
  "How do plants make their food?": "Photosynthesis",
  "What is the national sport of Canada?": "Lacrosse",
  "Who invented the telephone?": "Alexander Graham Bell",
  "What is the capital of Germany?": "Berlin",
  "What does 'HTTP' stand for?": "HyperText Transfer Protocol"
}